# vtk DataFile Version 2.0
Square of the field
ASCII
DATASET STRUCTURED_POINTS
DIMENSIONS 32 32 32
ORIGIN 0 0 0
SPACING 0.0625 0.0625 0.0625
POINT_DATA 32768
SCALARS q float 1
LOOKUP_TABLE 1
0.32354
0.088368
1.1248
4.1214
7.6085
8.7492
7.0692
4.6295
2.7812
1.3702
0.33447
0.25244
0.19153
0.25989
0.89175
0.25055
1.2075
4.495
3.8531
0.82816
0.42647
1.0947
1.4246
2.2867
3.8764
4.5587
2.958
0.7512
0.13735
0.70762
1.0989
0.85015
0.059417
0.14097
1.7274
5.0486
6.9866
5.8609
3.507
1.9729
1.5795
1.6986
1.4289
0.85344
0.71019
1.0644
1.0201
0.2088
1.1896
3.9279
3.0295
0.44533
1.6827
3.6445
3.7917
3.5286
3.3173
2.6318
1.5968
0.85273
0.50387
0.24567
0.087402
0.08002
0.055696
0.24841
1.9124
4.2062
4.1098
2.1585
0.69067
0.24476
0.43222
1.59
3.4683
4.6003
4.3584
2.9253
1.0776
0.17791
1.5407
4.303
3.6802
0.59642
2.2125
6.1566
6.7891
4.5092
1.9879
0.68804
0.39328
0.70792
1.3713
1.1979
0.37469
0.059619
0.080653
0.55996
2.6885
4.1846
2.8699
0.93714
0.18761
0.10196
0.24767
1.6754
5.3402
9.0877
9.1357
5.2349
1.4415
0.22445
1.4633
4.4631
5.3856
1.8711
0.81849
4.72
6.3796
3.2188
0.51778
0.32942
0.22333
0.28398
1.0975
0.9892
0.20234
0.10496
0.11487
1.4285
4.7511
6.0791
4.1123
1.9872
1.1802
1.1592
1.6368
3.3394
7.1419
11.321
11.55
6.9523
2.3126
0.44556
0.6297
2.7479
5.3768
4.0233
0.63469
1.3571
2.7216
0.93563
0.65936
1.873
1.1619
0.17975
0.1738
0.13436
0.33563
0.47458
0.18495
2.5494
6.9461
8.7262
7.216
5.6734
5.6512
6.6564
7.6287
8.4672
9.9046
11.458
10.988
7.4301
3.338
1.1084
0.37701
1.13
3.9401
5.2096
2.2908
0.22265
0.3117
0.31187
2.0318
3.6764
2.5084
0.90323
0.44181
0.81798
1.5265
0.92334
0.19043
2.3902
6.5285
9.2276
9.5482
9.8294
11.696
14.768
16.561
15.079
11.87
9.5291
8.3268
6.6215
3.8963
1.6245
0.47419
0.59954
2.8036
4.8754
3.4154
1.0002
0.38057
1.1447
3.3393
4.6381
3.3494
1.8175
1.4325
1.7554
1.7675
0.69787
0.074868
1.0489
3.7477
6.9502
9.2663
11.581
15.043
19.301
21.024
16.728
9.6734
5.4932
4.7751
5.1151
4.0046
1.833
0.45225
0.31427
1.4091
2.5694
2.1214
1.0709
0.92899
2.1169
4.2027
4.7683
3.3023
2.0058
1.568
1.2938
0.74336
0.19577
0.014947
0.22335
1.5365
4.4017
7.9257
12.043
16.755
20.655
19.987
12.67
4.8343
1.7219
2.0166
3.7953
3.9564
1.9445
0.48522
0.15069
0.27335
0.41091
0.32795
0.22821
0.59576
2.1855
4.1837
4.194
2.735
1.7392
1.2583
0.65824
0.1387
0.018927
0.01098
0.025596
0.52346
2.8013
7.0295
12.951
19.108
21.916
17.629
8.1496
1.6818
0.2277
0.80587
2.8201
3.1475
1.3075
0.27
0.1737
0.44726
0.94384
1.1832
0.61334
0.19793
1.5804
3.4665
3.3934
2.3521
1.9015
1.6736
0.85225
0.10974
0.023382
0.18322
0.27287
0.10475
1.3441
4.9421
10.69
16.752
18.807
13.974
5.7471
0.98814
0.14112
0.73059
2.0115
1.4158
0.22264
0.10271
0.066865
0.72137
2.4357
3.4234
1.9768
0.29421
1.3132
3.0296
2.8601
2.2059
2.502
3.1252
2.373
0.77483
0.14309
1.6443
1.5544
0.53728
0.22615
1.333
3.3292
5.926
7.7598
7.1095
4.2204
1.7619
1.1508
1.7629
1.7391
0.35981
0.3739
0.7084
0.11202
0.93037
3.3048
4.3108
2.2669
0.34658
1.5472
3.0387
2.4661
1.7673
2.4237
4.1362
4.7849
3.3582
1.9129
5.465
3.7746
1.589
0.41826
0.35714
0.71426
0.80798
0.59822
1.2009
2.3801
3.05
3.5009
3.7444
2.2924
0.30272
0.37076
0.39682
0.34636
2.3039
4.2764
3.8185
1.4628
0.2458
1.5214
2.5655
1.8155
1.0796
1.4928
3.3185
5.8247
7.1777
6.7048
8.9978
5.1372
1.9434
0.90389
1.7635
4.4731
6.0236
3.3942
0.44559
1.0105
3.0503
4.2516
4.3066
2.8931
0.97386
0.28127
0.68342
2.8656
5.6737
5.677
3.2897
0.95804
0.10748
0.75684
1.4288
1.1517
0.75418
0.90736
2.0026
4.6947
8.6061
10.731
7.659
3.6647
0.88532
0.3122
1.0284
3.4972
5.3743
3.3277
0.48156
0.66599
1.9935
2.3914
2.3142
2.1617
1.9641
2.379
4.4828
7.9571
9.0966
6.2946
2.9069
1.019
0.1847
0.17925
0.78571
1.1702
1.2251
1.275
1.5903
2.9122
5.9912
8.8022
2.7275
0.82269
0.37053
0.90106
0.6841
0.43412
0.57972
0.36932
0.60601
1.4127
1.2746
0.60711
0.41599
0.71648
1.8371
4.3702
8.246
10.909
9.0751
4.6543
1.791
0.78375
0.22923
0.15688
1.1121
2.1485
2.6322
2.5802
1.99
1.612
2.2475
3.3229
0.42394
1.12
3.6747
5.9805
5.7495
3.941
2.7656
2.8948
3.5327
2.9743
1.1202
0.088012
0.15875
0.19619
1.0993
4.3109
8.1313
8.5999
5.0012
1.4528
0.27208
0.1277
0.19029
0.9225
2.2891
3.129
3.4679
3.3979
2.2517
0.84254
0.39086
0.45606
1.1194
3.4519
7.88
11.353
10.614
7.3216
5.1342
4.7777
4.65
3.1966
1.1095
0.085437
0.17781
0.19233
0.69001
3.1531
5.1569
3.6932
0.97102
0.62928
1.6467
2.1009
2.5682
3.285
3.1962
2.3821
2.0762
2.2878
1.7609
0.52555
0.14768
0.42935
1.2193
3.7277
7.9501
10.563
8.1783
3.9266
1.8583
1.672
1.9271
1.6593
0.96673
0.2954
0.038447
0.10198
0.46778
1.8003
2.2193
0.75933
1.0497
4.4435
7.1804
7.8863
7.6668
5.9678
2.9358
0.87883
0.40913
0.66816
1.0434
0.64124
0.15437
0.32171
0.85315
3.1713
5.8657
5.9649
2.7377
0.45607
0.64514
0.66527
0.27937
0.3239
0.66379
0.6024
0.1258
0.10111
0.23701
0.54902
0.60062
0.37619
3.1732
8.5087
11.562
11.953
10.552
6.528
2.0403
0.23465
0.21219
0.13519
0.57169
1.0544
0.56095
0.091633
1.5201
4.1652
5.0257
2.8748
0.41423
1.4697
4.6431
5.1905
2.6667
0.42279
0.34248
0.57681
0.097812
0.49112
1.0612
0.62905
0.27986
0.76398
4.1537
9.1391
10.95
10.106
7.946
4.2194
0.98375
0.11951
0.38273
0.17874
0.21327
0.84755
0.60781
0.1186
4.7869
7.9896
6.765
2.6314
0.21677
2.2557
6.6745
8.4648
5.368
1.1196
0.17906
0.4035
0.098449
1.2745
3.0944
2.7548
1.4293
1.6001
4.3467
7.565
7.4073
5.3591
3.4017
1.5153
0.27876
0.035284
0.16951
0.14426
0.038299
0.11168
0.14609
1.2008
11.303
14.955
11.977
5.4725
0.85107
0.90484
3.9016
5.6282
3.7461
0.74792
0.18433
0.37422
0.094644
1.4217
4.3515
5.4525
4.0543
3.5714
5.2073
6.4393
4.8874
2.6265
1.3026
0.53791
0.16451
0.10747
0.12215
0.15103
0.29741
0.57868
1.5915
5.09
18.173
23.249
20.189
11.69
3.6641
0.39972
0.74057
1.1638
0.57865
0.19152
0.65003
0.65487
0.10098
0.99594
4.3901
7.2756
6.9837
6.1277
6.4622
6.2759
4.3906
2.5308
1.6816
1.2314
0.94467
0.84171
0.54328
0.2571
0.64763
1.4748
3.5606
9.3255
21.698
28.272
25.886
16.98
7.3385
1.9297
0.52374
0.50537
0.97199
1.6253
1.8833
1.2713
0.25528
0.60107
3.6704
6.8626
7.0553
6.0491
5.7758
5.5647
4.64
3.9668
4.2777
4.621
3.9686
2.4916
0.83766
0.31983
0.88499
1.5094
3.7309
10.783
17.849
23.352
21.554
15.1
8.0461
3.6432
2.2294
2.431
3.0858
3.2558
2.8207
1.9035
0.56865
0.27207
2.0376
3.7632
3.7191
3.2475
3.4847
4.0786
4.3886
5.1917
7.5642
9.8202
8.4466
3.8693
0.56104
0.83749
1.5337
1.3433
2.6861
8.4656
7.6013
10.169
9.7097
7.6206
5.3058
3.7407
3.3348
3.577
3.5398
2.997
2.6242
2.3283
1.1768
0.19412
0.4304
0.84519
0.91555
1.1582
1.8665
2.6606
3.0436
3.9977
7.046
10.361
8.7437
2.9552
0.41956
2.5735
3.0347
1.5362
1.3758
3.5347
0.9448
1.4085
1.5306
1.6248
1.9316
2.3442
2.8774
3.1684
2.6288
1.8374
1.8067
2.3379
1.9239
0.7793
0.18999
0.051461
0.11157
0.5329
1.2444
1.5736
1.2889
1.4015
2.9491
4.9744
3.9461
0.82438
1.1951
4.5406
4.431
1.7001
0.41433
0.45924
1.1362
0.49926
0.18457
0.071388
0.33009
1.1807
2.1413
2.4596
1.752
0.92423
0.87047
1.4848
1.7976
1.3227
0.66566
0.15884
0.11462
0.75648
1.2949
0.96307
0.33712
0.16358
0.41328
0.845
0.49059
0.32565
2.2827
4.5399
3.4929
0.85366
0.30237
1.2131
2.451
0.94884
0.41334
0.13575
0.17177
1.306
2.5702
2.6661
1.5597
0.52037
0.24017
0.35348
0.66272
0.99575
0.83165
0.18164
0.45959
1.8228
2.0593
0.9145
0.13753
0.080567
0.059929
0.087087
0.4484
1.6387
2.9741
2.7078
0.96624
0.33157
2.0821
3.575
2.1492
0.56451
0.13642
0.12221
1.0608
3.2578
4.6911
4.0175
2.0406
0.53216
0.23212
0.38738
0.19666
0.38921
0.75513
0.17344
0.99204
3.4438
3.3574
1.2297
0.15626
0.13804
0.26046
0.70179
2.0155
3.6065
3.3561
1.1725
0.23454
2.0181
4.4714
4.4619
1.1172
0.19047
0.29208
1.4891
4.2089
6.9404
7.2886
5.3575
2.7766
0.83449
0.26603
0.79578
0.52558
0.16141
0.74126
0.20228
1.2818
4.6166
4.2892
1.3471
0.16534
0.27712
0.57605
1.5032
3.4964
4.9653
3.5103
0.70913
0.48364
2.4896
3.7594
2.894
1.3754
0.77139
0.25753
1.7527
4.7416
6.8451
7.8383
8.4171
7.8454
5.2807
1.9017
0.19143
0.037919
0.066109
0.27621
0.1075
1.9802
6.4803
6.3802
2.3479
0.36104
0.11819
0.44681
2.0267
5.1743
7.7619
6.8657
3.1404
0.58817
0.23238
0.69134
1.2149
0.078581
0.095795
0.76752
2.9072
4.5971
4.2586
3.316
3.1293
3.74
4.3523
3.571
1.6121
0.40637
0.13865
0.10363
0.43806
3.2042
7.474
6.2501
1.5313
0.18487
1.0624
2.2367
3.8109
5.2925
6.0451
5.6763
4.1581
2.4866
1.2645
0.48054
0.12955
0.3608
0.59409
1.8335
3.3523
2.929
1.1755
0.27759
0.18757
0.72852
3.0568
5.8113
5.2888
2.3367
0.47139
0.24797
1.3921
5.1623
9.8727
8.3616
2.1772
0.42016
2.8488
5.2193
5.6136
4.1584
2.9468
2.9725
3.7351
4.2499
3.4801
1.8579
0.7503
0.7102
1.6582
3.4576
4.0921
2.1749
0.27706
0.22034
0.29397
0.17198
2.6556
7.5759
8.8777
4.7161
0.95711
0.38885
2.0462
6.3994
12.376
12.552
4.9922
0.41421
2.8552
6.0967
5.0519
1.9213
0.61709
0.84018
2.062
3.3718
3.0061
1.4688
0.66606
0.81904
2.96
5.5782
5.6634
2.9158
0.62493
0.12569
0.17336
0.93615
3.9857
8.5384
9.7065
5.5151
1.2584
0.38967
1.8559
5.4667
11.312
14.002
8.1729
1.2093
1.2849
3.9239
2.6683
0.43447
0.13874
0.1404
0.58498
1.1474
0.809
0.27223
0.20162
0.91303
3.8131
6.8394
6.9857
4.5883
2.4824
1.9279
2.9234
5.4081
8.4752
10.297
8.9832
4.937
1.3326
0.31813
1.2925
3.6486
7.873
11.525
9.2066
2.8034
0.26782
1.1976
0.70843
0.19056
0.56517
0.27897
0.14152
0.19645
0.16039
0.31273
0.17203
0.83582
3.0305
5.581
6.5765
5.8867
5.1809
5.9068
8.9652
13.438
15.411
12.745
7.9819
3.987
1.4101
0.27793
0.56262
1.9654
4.764
8.093
8.2395
4.1458
0.73559
0.11118
0.16222
0.69334
1.0438
0.43516
0.14312
0.15531
0.25634
0.33949
0.17746
0.56387
1.3286
2.9212
4.8122
6.2092
7.2592
9.2214
13.771
19.368
19.396
12.512
5.8174
2.7023
1.4929
0.619
0.14101
0.58954
2.1944
4.5273
5.4495
3.734
1.5712
0.75399
0.97405
1.5933
1.3339
0.40783
0.1362
0.16638
0.19982
0.25097
0.3288
0.4091
0.38338
1.2003
3.3388
6.3175
9.1245
12.151
16.986
21.238
17.895
8.7313
2.8223
1.3403
1.4854
1.3331
0.4928
0.066991
0.54046
1.5981
2.1873
1.7831
1.2143
1.1786
1.7494
2.1391
1.2989
0.30638
0.092796
0.13126
0.27021
0.63222
0.72871
0.31115
0.082481
0.4359
2.3612
6.3742
11.18
15.834
20.388
21.426
14.342
4.9438
0.93856
0.56538
1.3404
1.6109
0.76434
0.10089
0.066091
0.30413
0.41526
0.38181
0.46861
1.0369
2.1165
2.4495
1.3268
0.35966
0.15876
0.1646
0.16676
0.55973
0.78407
0.10084
0.16637
0.09965
0.94672
4.2667
9.4456
14.848
18.74
17.83
10.495
3.0831
0.48996
0.41025
0.96006
0.86584
0.26304
0.046103
0.021885
0.04544
0.20699
0.2784
0.23229
1.1862
3.053
3.3937
1.8182
0.7157
0.69037
0.99587
0.66547
0.19947
0.20558
0.95782
1.5294
1.1074
0.25462
0.73806
2.5511
5.118
7.5207
7.9934
5.4153
2.2005
0.79028
0.64137
0.55285
0.13647
0.10367
0.14384
0.10085
0.58399
1.1862
0.86567
0.23108
1.6665
4.4438
4.6911
2.4826
1.1
1.2687
2.2202
2.4065
1.4729
0.7991
3.1038
3.3334
2.8159
1.7678
1.3619
1.5098
1.3765
0.84879
0.75619
1.1039
1.2251
1.1041
0.88535
0.38274
0.068001
0.19641
0.1305
1.091
3.1151
3.5888
1.8373
0.22935
1.4753
4.3558
4.8109
2.7376
1.2226
1.0978
1.91
2.9291
3.3132
3.1169
3.4718
2.8411
2.3636
2.5417
4.2874
7.7263
9.5964
6.8502
2.3973
0.35181
0.43764
0.70255
0.5896
0.28915
0.097062
0.059256
0.81826
4.0697
7.1277
6.2175
2.9942
0.54448
0.45748
2.4755
3.8149
2.9475
1.5198
0.77125
0.75962
1.4747
2.7793
3.6646
1.3987
0.77045
0.46104
0.8181
2.7791
6.8631
9.4988
6.9228
2.3372
0.31571
0.1946
0.21667
0.24476
0.2381
0.16129
0.40933
2.5514
6.9231
8.82
6.4248
3.4049
1.4213
0.19915
1.0046
3.2903
3.8731
2.5011
0.99863
0.315
0.35503
0.95372
1.5977
0.68119
1.0742
1.2004
0.69796
0.34221
1.0105
1.4833
0.83252
0.79358
1.1725
0.49329
0.16266
0.74992
0.8057
0.3312
0.5694
3.0684
6.412
6.2117
3.5952
2.1817
1.7274
0.52858
0.56724
3.2088
4.5373
3.3571
1.5863
0.41297
0.085318
0.19945
0.41473
3.5164
4.9565
5.4971
4.5655
2.9092
1.8576
2.2096
4.4855
7.306
6.2939
2.019
0.17579
1.3532
1.8716
0.89232
0.37662
1.7341
2.9443
1.809
0.54554
0.39564
0.73341
0.33224
0.5259
2.3372
2.989
2.3317
1.4676
0.51277
0.099622
0.82881
2.0843
5.7099
6.8745
7.4214
6.8916
5.2903
4.0229
4.7589
8.1237
11.344
9.3932
3.6873
0.32286
0.88431
1.9643
1.3184
0.40282
0.44131
0.42338
0.55537
1.359
1.0432
0.42634
0.3479
0.65658
0.94735
0.66879
0.46199
0.49085
0.29879
0.14421
1.5419
3.9073
3.4301
3.8664
4.26
4.1886
2.968
1.6505
1.6345
3.4117
5.9695
6.2701
3.7467
0.88808
0.23195
1.2854
1.4051
0.72939
0.53218
1.3161
4.0673
6.5064
5.1401
2.6528
1.5423
0.9319
0.29862
0.24391
0.3703
0.12451
0.075721
0.072228
0.79365
2.3813
0.78216
1.1592
1.3467
1.1182
0.42824
0.20402
0.51849
0.41004
0.74921
1.9581
2.5753
1.4054
0.14279
1.0891
2.1571
1.7492
1.5197
3.2175
7.8286
11.289
9.1519
5.1827
2.6877
1.0072
0.26584
0.96601
1.5035
0.68082
0.059986
0.15903
0.11209
0.30043
0.39761
1.0447
0.9603
0.34147
0.11547
1.2405
3.2194
3.3914
1.2992
0.26015
1.4282
1.5853
0.23518
1.3359
4.0357
4.128
2.9708
4.0162
8.583
12.387
9.908
5.0378
2.0344
0.55906
0.34879
1.1666
1.5552
0.76126
0.064824
0.35889
0.48133
0.1064
1.7075
3.4686
2.905
1.0777
0.12765
1.0391
3.7006
5.4407
3.4353
0.43951
0.8164
1.6063
0.37733
1.331
5.5751
6.9486
4.5807
3.9458
7.1983
10.705
8.3552
3.3914
0.80602
0.16909
0.26423
0.45131
0.37695
0.14283
0.018788
0.16097
0.21829
0.26671
4.9747
8.3659
7.8837
4.5429
1.4281
0.2534
1.3404
2.829
2.1319
0.30739
0.72085
1.5359
0.51708
0.8772
5.1931
8.0596
5.7751
4.0925
6.1453
8.99
7.0727
2.7233
0.56718
0.1369
0.15856
0.36322
0.56674
0.36838
0.071507
0.046863
0.29363
1.5528
7.7653
12.243
13.083
9.7929
4.9087
1.4189
0.28759
0.26934
0.22433
0.40352
1.2856
1.6336
0.6796
0.3923
3.5134
7.1212
6.501
5.2291
6.6572
8.7729
7.4308
4.0158
2.1149
1.9097
2.6718
3.6196
3.203
1.3392
0.14743
0.19
0.99384
3.2781
8.3523
12.713
14.254
12.009
7.5214
3.7816
2.0723
1.6772
1.7822
2.0126
2.2192
2.0182
1.0585
0.21075
1.7823
4.889
5.847
5.7988
7.1877
9.198
9.0875
7.3858
6.843
8.1051
9.6945
8.9802
4.9937
1.2134
0.082379
0.22283
1.092
3.7274
5.7972
8.8496
10.075
9.2121
7.0614
5.1542
4.1791
3.6351
2.9499
2.256
2.0516
2.2398
1.6979
0.42429
0.54153
2.1977
3.4472
4.3958
6.2725
8.793
10.006
10.257
11.95
14.978
15.603
10.586
3.3468
0.29681
0.22259
0.1936
0.55016
2.3571
1.2965
2.5004
3.5348
4.2115
4.5153
4.5813
4.3704
3.4103
1.8996
0.9545
1.0975
2.2577
2.5654
1.0959
0.12861
0.42742
1.2384
2.5165
4.6206
6.9328
7.8893
8.3872
10.693
13.728
12.8
6.312
0.81536
0.92546
1.2183
0.27489
0.12461
0.41722
1.2597
0.49708
0.27316
0.78673
1.7779
2.6943
3.0644
2.4085
1.0804
0.38976
0.77222
2.541
3.5699
2.1808
0.61665
0.066406
0.29296
1.3346
3.0336
4.2366
3.9341
3.5297
4.5034
5.8818
4.885
1.5061
0.54542
2.8902
2.5858
0.45074
0.47481
1.4186
5.5099
2.978
0.8761
0.092908
0.37246
1.2329
2.0755
2.2452
1.4824
0.80272
1.1084
2.6169
3.6951
2.8176
1.2839
0.27668
0.099656
0.92038
2.0649
2.2676
1.4151
0.80496
0.83218
0.94584
0.53877
0.20048
1.5105
3.356
2.402
0.33583
1.4583
4.9214
8.0592
4.4055
1.5251
0.23735
0.15671
1.0825
2.5306
3.6846
3.4216
2.1191
1.3267
1.4819
2.021
2.122
1.4265
0.37935
0.16705
1.3304
2.2689
1.7878
0.80377
0.29016
0.1053
0.053849
0.41695
1.3649
2.3288
2.1713
0.79546
0.34188
3.2979
7.8566
7.3947
3.9156
1.1917
0.11417
0.67402
2.5018
4.9388
6.9479
6.5163
3.6089
1.0633
0.25138
0.31402
0.85758
1.1153
0.32802
0.4979
2.8005
3.8121
2.4086
1.0255
0.39546
0.07778
0.40118
2.0656
3.8893
3.5727
1.3876
0.13712
1.4253
4.9576
8.1644
4.5304
2.4479
0.5363
0.46249
2.5636
5.4335
8.1094
9.8872
8.8621
4.8399
1.1011
0.053357
0.057929
0.19965
0.67203
0.19726
1.1511
4.982
5.7994
2.978
1.0223
0.33905
0.099296
1.0512
4.0416
6.7438
5.5816
1.8063
0.16984
1.4153
3.5518
5.022
3.0428
3.1208
1.1044
0.22109
1.6394
3.8968
6.9904
10.588
11.411
7.512
2.4547
0.21479
0.073936
0.038395
0.043172
0.090318
1.4186
4.3614
4.3693
1.8851
0.72017
0.46957
0.15607
0.87833
3.926
7.7318
8.7473
5.5451
1.8443
0.34
0.33787
1.4056
0.23676
0.44437
0.18122
0.5695
1.5636
2.0503
2.5779
3.833
5.3831
5.792
4.0111
1.3124
0.098695
0.20485
0.41912
0.9194
3.0544
5.9841
4.9229
1.4078
0.09819
0.17292
0.75329
2.2778
4.5468
7.1731
9.1409
8.2586
5.3537
2.9074
1.2992
0.35469
0.82078
0.46121
0.81256
1.5449
1.4325
0.57983
0.21118
0.35841
1.4705
4.1692
5.8118
3.4414
0.51074
0.54618
1.7454
3.1289
6.366
10.334
8.8788
2.9967
0.1958
0.86125
2.5951
3.9077
3.9942
4.4231
6.353
8.2145
8.1728
6.4552
4.0198
2.0166
2.0092
2.1639
2.9322
3.1553
1.7037
0.23963
0.099532
0.097003
0.69573
3.788
6.9148
4.9546
0.93109
0.83447
2.9538
5.4669
10.557
17.521
17.356
7.8932
0.90747
1.0561
3.6355
3.9916
2.2296
1.539
2.8755
5.491
7.1404
6.4077
4.1824
2.5962
2.6397
3.9674
5.1157
4.6209
2.29
0.44698
0.083769
0.27775
1.6241
4.7093
7.0194
4.9134
1.0191
0.8756
3.3807
6.7383
13.025
21.998
23.781
12.945
2.2279
0.69415
3.1095
2.8383
0.87825
0.25369
0.83851
2.5374
3.7985
3.3679
2.2082
1.9037
3.1557
4.9267
5.8281
4.8718
2.6632
1.0738
0.77089
1.81
4.4848
7.3242
7.6729
4.6452
1.0812
0.50264
2.6297
6.0805
11.599
18.906
21.158
13.212
3.2415
0.26108
1.4987
1.3058
0.23819
0.021855
0.22543
1.2053
1.8775
1.5756
1.2415
1.6973
3.4408
4.0952
4.3168
3.7663
2.6824
1.911
2.1502
4.3212
8.5857
11.386
9.4655
5.012
1.5203
0.18873
0.85658
2.9949
6.3566
10.575
12.675
9.5759
3.78
0.51018
0.1496
0.13477
0.099661
0.13654
0.098768
0.88108
1.5381
1.6559
1.9426
2.6025
3.1752
2.1506
1.975
2.4018
2.9676
3.3049
3.973
6.7747
12.015
14.391
10.327
4.8773
1.8776
0.6243
0.13634
0.36783
1.427
3.3597
5.3352
5.5489
3.7593
1.7646
0.77147
0.58336
0.73774
0.47164
0.059698
0.60751
1.4978
2.5969
3.9787
4.2814
2.7711
0.91619
0.69337
1.7926
4.1602
6.1911
7.3553
10.108
14.577
14.824
8.8102
3.3793
1.3961
1.0144
0.80375
0.40633
0.11782
0.48182
1.7685
2.9467
3.1034
2.5365
1.8784
1.5758
1.4417
0.78577
0.11044
0.21328
0.99268
2.922
5.5165
5.4953
2.2861
0.44322
0.23199
1.4878
5.341
9.6355
12.028
14.408
16.513
13.534
6.2971
1.6809
0.59454
0.77686
1.1439
1.0725
0.51434
0.081769
0.51677
1.3753
1.9395
2.1994
2.2555
2.3026
2.1162
1.2498
0.40114
0.07811
0.23469
1.6451
4.3388
4.8675
1.0575
0.11629
0.081449
0.51837
3.5042
8.1995
11.589
13.559
13.67
9.6773
3.749
0.654
0.12141
0.25935
0.60174
0.82924
0.65904
0.2466
0.080792
0.22879
0.62882
1.4922
2.7408
3.812
3.7347
2.3285
1.1077
0.62916
0.30613
0.24867
1.3302
2.1695
0.19505
0.60994
1.2639
0.62244
0.45549
1.7457
3.2915
4.3639
4.6099
3.3402
1.2682
0.17776
0.10648
0.11265
0.065606
0.2498
0.74581
1.2294
1.3212
0.83822
0.17686
0.76454
3.2032
5.7374
5.8746
3.7117
1.9489
1.4715
1.3396
0.73931
0.22771
0.28064
0.42677
1.3438
2.8415
3.1435
2.7201
2.6285
2.5335
1.9086
1.0191
0.43731
0.21349
0.25175
0.56759
0.76002
0.46808
0.091798
1.0817
3.7607
5.5677
4.4797
1.6199
0.22783
2.1377
5.5064
6.6598
4.8048
2.6685
1.6742
1.3549
1.042
0.5956
0.33582
0.2892
0.53112
1.5791
3.4118
6.382
10.755
13.804
12.145
7.1262
2.8837
1.1013
0.89945
1.331
1.6343
1.1497
0.18055
1.3893
6.0631
9.3223
7.9089
4.1101
0.98257
0.49724
3.3763
6.5714
6.4378
3.9224
1.6041
0.49343
0.23352
0.24345
0.27686
1.1156
0.94643
0.37148
0.78134
3.9024
9.9066
14.241
12.136
6.399
2.4374
1.1709
1.3852
2.1392
2.3668
1.5926
0.30284
1.2998
5.8004
8.5593
7.4456
5.3148
2.9736
0.48291
1.8683
7.086
9.0564
5.9885
2.0432
0.20346
0.11814
0.4028
0.75204
4.6494
5.3799
3.6811
1.1532
0.44243
2.1594
3.2289
1.8862
0.80906
0.58781
0.22484
0.99883
2.7462
3.401
2.4431
0.64055
0.70242
3.4401
4.6433
4.04
4.2845
4.3191
1.4263
1.0138
6.2371
8.9598
6.2976
2.4241
0.30615
0.21122
1.1324
2.6839
9.28
10.579
8.3618
4.5308
1.6271
0.63468
1.1183
3.7907
7.5316
6.6217
1.893
0.36672
2.6564
4.5013
3.9286
1.5999
0.22787
0.74301
0.88119
0.82086
2.0224
3.8708
2.1502
0.3207
2.5181
3.967
3.0674
1.591
0.37632
0.20391
1.9783
5.5383
9.9165
9.9529
7.7371
4.9911
2.8535
2.1054
3.7031
8.8872
14.243
12.191
4.6192
0.35739
1.6945
4.4213
4.8841
3.0798
1.3139
0.81931
1.0127
0.76118
0.46641
2.0516
2.1077
0.53195
0.20791
0.311
0.305
0.32537
0.17725
0.21455
2.422
6.7489
4.2472
3.5181
2.5311
1.8661
1.3147
1.0468
1.9238
5.1087
8.9901
8.8501
4.5773
0.73851
0.75688
3.4321
4.9308
4.4401
3.9177
4.7235
6.0811
4.8199
1.3548
0.61137
1.3262
1.188
1.0375
1.069
0.73057
0.17037
0.027452
0.088596
1.1622
3.3275
0.32362
0.24871
0.1929
0.12321
0.092854
0.090174
0.18516
0.65072
1.9048
3.0414
2.7446
1.0011
0.29238
2.641
5.3152
5.8832
6.0491
8.1462
11.267
10.139
4.1887
0.62058
0.67755
1.4678
2.3766
2.963
2.3285
0.81792
0.05664
0.14362
0.19054
0.28445
0.79499
0.64474
0.58569
0.30115
0.093454
0.20353
0.57934
0.71789
0.28925
0.40891
1.4739
1.4589
0.2329
1.8716
6.129
7.7793
7.0842
8.3878
12.378
13.038
6.7612
1.1925
0.4159
1.6791
3.2754
3.9622
2.8523
0.94689
0.079845
0.66493
1.4198
1.2758
0.53495
0.37552
0.32587
0.1576
0.057193
0.10334
0.58511
1.5196
1.2734
0.15794
1.145
2.3779
0.86361
0.94844
5.8914
8.8443
6.8855
6.1945
9.6475
12.494
8.023
1.7725
0.20791
1.3059
2.5643
2.6733
1.4591
0.3033
0.077445
0.68345
1.5184
1.3108
0.60321
1.7891
2.194
1.6698
1.096
0.48868
0.1599
0.6372
0.77251
0.14832
1.4899
3.2029
1.7563
0.34121
3.8734
7.3594
5.5017
4.0335
6.7309
10.613
8.415
2.8052
0.34018
0.20447
0.38713
0.39203
0.29045
0.19633
0.1182
0.17786
0.33532
0.27176
1.8426
4.3857
5.8616
5.037
3.3307
1.8302
0.78636
0.30466
0.25219
0.79756
2.55
3.7232
2.4156
0.37119
1.4442
4.2648
4.1263
3.6594
6.1783
9.9192
9.2075
5.1705
2.9157
2.9351
3.7816
4.0382
2.9133
1.1416
0.15598
0.019331
0.11028
0.46189
2.6404
5.4689
7.234
6.2547
4.2748
3.053
2.5151
2.1581
1.9824
2.387
3.4228
4.0528
3.1236
1.0241
0.28505
1.8224
3.122
4.2945
7.266
10.836
11.187
9.197
8.9364
11.504
14.195
12.615
6.5838
1.5713
0.0969
0.041653
0.22353
0.87068
1.8158
3.9181
5.0801
4.3931
3.46
3.4578
3.7796
3.3607
2.3769
1.8667
2.3852
3.6033
3.6793
1.715
0.17581
0.67498
2.155
4.2532
7.6627
11.217
12.24
11.807
13.145
16.58
18.392
13.792
5.1759
0.59457
0.021328
0.0099929
0.052612
0.43124
0.25908
0.82037
1.555
1.8436
2.204
3.0733
3.6239
2.6683
1.0638
0.38208
0.81267
2.6874
3.7774
1.9763
0.23423
0.27538
1.3474
3.2683
6.2139
8.8396
9.2697
8.8776
9.8081
11.38
10.858
6.2698
1.2222
0.2725
0.29614
0.098943
0.50274
0.40204
2.716
0.93304
0.14475
0.38632
1.1757
2.2168
2.8089
2.0636
0.68581
0.12755
0.47119
2.3619
3.6364
1.9511
0.28865
0.14897
0.75616
1.9888
3.8132
4.9142
4.3163
3.4807
3.4072
3.3573
2.4628
0.81753
0.33072
1.3568
0.83764
0.2178
1.8941
3.4742
8.4915
4.3414
0.94482
0.077475
0.59537
1.5442
2.6024
3.0263
2.2333
1.2075
1.1476
2.2882
2.8975
1.6095
0.35316
0.083279
0.32984
1.0364
2.0373
2.3221
1.5918
0.91985
0.57672
0.27904
0.17228
0.41655
1.1329
1.6423
0.78216
0.27272
3.1684
7.9604
12.369
6.9155
1.7576
0.10851
0.47983
1.6184
3.788
6.3768
6.6984
4.183
1.9143
1.2956
1.2668
0.91075
0.39252
0.074843
0.14224
0.80877
1.6375
1.7366
1.2338
0.75524
0.26873
0.073646
0.78724
1.6501
1.7361
1.0946
0.25638
0.51896
4.3233
10.874
12.44
7.7515
2.1989
0.12513
0.7298
2.6433
6.4788
11.338
11.987
6.7353
1.7122
0.22282
0.13891
0.2969
0.40214
0.12947
0.22301
1.4835
2.5239
2.3189
1.8772
1.4796
0.56745
0.17475
1.7819
3.5387
3.0029
1.1104
0.08531
0.94435
4.6831
10.533
8.5613
6.4692
2.1086
0.14372
1.2581
4.0084
8.6716
14.015
14.292
7.8076
1.6408
0.060726
0.095748
0.05602
0.27858
0.10475
0.62844
2.9905
3.9106
2.6568
1.8667
1.5414
0.57308
0.35027
2.9118
6.0257
5.7301
2.4945
0.29308
0.52956
2.6487
6.2479
2.7799
3.639
1.6867
0.13089
0.49839
1.8877
4.6639
8.5289
9.5011
5.3693
1.122
0.10577
0.16443
0.052106
0.046884
0.082753
0.18441
0.77867
0.99064
0.67062
0.81157
1.2151
0.74875
0.15094
0.97222
2.9167
4.2919
3.5128
1.7443
0.66678
0.21138
0.75414
0.23781
0.66808
0.3559
0.11547
0.5642
0.95405
1.5675
2.8929
4.3508
4.3002
2.4234
0.56844
0.054347
0.36162
0.42862
0.34039
0.71313
1.6094
1.6767
0.71266
0.22459
0.15174
0.11574
0.46797
1.4197
3.2698
5.8186
6.5922
4.9945
3.2918
1.9096
0.59672
0.85745
0.2872
0.40745
0.94408
1.0919
0.61934
0.36742
0.66909
1.9045
3.7347
3.786
1.425
0.16432
1.4599
2.3864
2.2183
3.0606
5.4141
6.0406
3.141
0.62446
0.10038
0.63141
1.3035
1.6217
2.6735
5.5511
8.2664
8.3525
6.8657
4.7582
2.4991
2.1655
1.731
2.1901
2.7057
2.0563
0.90321
0.47026
0.8134
2.1917
4.2264
4.3554
1.5567
0.42629
3.1435
5.2461
5.82
8.7432
15.129
17.412
10.227
2.3859
0.19752
1.1451
1.6435
1.1165
1.3323
3.5766
7.0005
8.6458
7.8634
5.6404
3.5128
3.3368
3.51
4.0536
3.9405
2.6161
1.3504
1.1779
2.1867
4.0443
5.2985
4.2459
1.2539
0.65255
4.0189
7.0616
9.4083
15.554
26.03
29.211
17.703
4.5648
0.27715
1.1386
1.4185
0.58082
0.38911
1.5115
4.0667
5.9682
5.9483
4.7224
3.7117
5.2199
5.1238
4.7575
3.6105
2.0696
1.2133
1.483
3.1294
5.5187
6.3179
4.3783
1.3145
0.35727
2.5642
5.5899
9.0949
15.846
25.199
27.416
17.254
5.1686
0.39777
0.54917
0.70224
0.17936
0.038367
0.41687
2.0011
3.7889
4.6779
4.9825
5.1588
7.6038
5.4359
3.6888
2.2718
1.2777
0.9148
1.2889
2.9605
5.8143
7.0249
4.9763
2.0072
0.34569
0.40729
1.6903
3.9246
7.6861
12.312
13.8
9.9915
4.3751
1.0354
0.18636
0.11271
0.20102
0.2832
0.10448
1.008
3.0123
5.5009
8.1084
9.0435
8.8211
3.9076
1.7265
1.1908
1.3678
1.7133
2.0574
3.3408
5.9967
7.2603
5.2523
2.6708
1.251
0.55669
0.22792
0.31927
0.97003
2.2747
3.6353
4.1331
3.6451
2.5935
1.5708
1.1475
1.3899
1.368
0.46392
0.34265
2.2986
6.9865
12.914
13.886
8.3596
2.2362
0.54452
0.90788
2.8537
4.9858
5.3824
5.7408
7.2498
7.3929
4.8229
2.4284
1.6049
1.5517
1.5101
1.2453
0.67981
0.17726
0.67648
2.1438
3.6014
3.9998
3.1995
2.4859
2.6385
2.6795
1.538
0.289
1.1775
6.7609
15.076
16.05
6.8147
1.3044
0.1245
0.75774
4.266
8.854
9.9263
9.1616
8.8293
7.2538
3.9126
1.4974
0.87331
1.2069
1.9553
2.5442
2.0834
0.6695
0.18218
1.4012
3.1519
3.9937
3.5559
3.1177
3.5409
3.8742
2.8828
1.0135
0.32033
4.0704
11.512
13.373
4.0755
0.52645
0.1586
0.22655
2.3025
6.6628
8.5928
7.9023
6.739
4.8129
2.1106
0.42455
0.099221
0.22837
1.03
2.5292
3.1167
1.8866
0.47085
0.29308
1.3083
2.6269
3.43
4.1845
5.1553
5.2289
3.913
1.9787
0.36238
0.98424
4.7811
7.1866
1.5118
0.2207
1.5551
1.6857
0.56025
0.95568
1.6854
1.6524
1.3558
0.90082
0.31231
0.33281
0.91808
0.66747
0.19282
1.6762
4.4088
5.3801
4.1344
1.9122
0.34769
0.81566
2.7292
5.1554
6.8927
6.4311
4.5068
2.6754
1.1346
0.17807
0.89655
2.3713
0.72713
0.31577
2.7541
4.9413
4.6806
3.9251
3.6704
3.4326
2.7069
1.7702
1.4309
2.2072
3.5753
3.3269
1.0858
0.63366
4.886
10.044
11.443
8.4655
3.4912
0.50536
1.0187
4.1682
7.3418
7.5441
5.305
2.8521
1.1163
0.20382
0.30335
1.0558
1.5586
0.37949
0.9995
3.9033
7.6982
11.921
14.952
14.376
10.617
6.4228
4.1009
4.0922
5.3056
5.3842
2.9043
0.36191
3.1698
10.418
14.683
13.135
8.1569
3.077
0.36939
2.5004
7.8586
10.164
7.3999
3.0093
0.4569
0.20731
0.96571
1.7972
4.2436
3.2039
1.0359
0.62185
3.9273
10.325
15.071
13.729
8.8205
4.8796
3.286
3.5767
4.7275
5.146
3.6206
0.80844
1.2378
6.6377
10.992
11.249
9.4229
5.9379
1.2413
1.8382
9.5804
14.214
10.458
3.7618
0.30979
0.59105
1.9483
3.3664
7.704
8.8051
5.8304
1.7357
0.44566
2.5674
4.1139
2.631
1.0288
0.5155
0.49726
1.591
3.4915
4.6724
4.0509
1.4741
0.34146
3.0379
5.6812
6.5561
7.6141
7.1498
2.3739
1.1936
8.6201
13.66
10.409
4.2815
0.6343
0.27099
1.6429
4.2964
10.003
12.286
9.524
4.7763
1.3912
0.32049
0.49893
2.1302
4.8887
4.4034
1.1512
0.43297
2.7796
5.0985
5.3031
2.8195
0.39938
0.59956
1.5794
2.4956
4.9897
7.3264
4.0951
0.47091
3.0212
5.9438
5.354
3.1858
1.2034
0.17748
1.019
4.7322
8.2238
9.2073
7.0954
4.4233
2.4617
1.6398
2.6722
6.5889
10.771
8.9403
2.882
0.25852
2.3942
5.4495
6.4868
4.874
2.3553
0.90729
0.41821
0.34024
2.2297
6.1347
5.928
2.1138
0.37302
0.49971
0.86263
1.2115
1.1941
0.43307
0.69697
4.0732
2.347
2.1423
1.557
1.3441
1.3614
1.4713
2.4477
5.182
7.8077
6.4552
2.3052
0.25708
1.9264
4.8918
6.5131
6.425
5.6647
5.007
4.0485
1.7226
0.47995
3.4507
5.83
4.6919
2.7954
1.3977
0.40673
0.17562
0.67417
0.58855
0.25867
1.2871
0.79259
1.034
0.85857
0.22873
0.20148
0.52284
0.88584
1.6807
2.5027
2.2305
1.0271
0.19292
1.0458
3.5689
5.9461
6.981
7.5708
8.8105
9.4378
6.1169
1.1337
1.154
4.1228
5.5788
5.6018
4.3966
2.1311
0.32621
0.37156
1.1518
1.122
0.79832
4.105
4.1076
3.3615
1.303
0.091085
0.15027
0.22875
0.2278
0.27148
0.36912
0.54551
0.41449
0.21715
2.0263
5.6303
7.5016
7.6636
9.0288
11.39
9.7073
3.3443
0.32725
2.2957
5.072
7.1371
7.0367
3.9908
0.76331
0.36446
2.2339
4.0236
4.4
3.6734
2.6771
2.0681
0.91426
0.081462
0.18659
0.15767
0.087143
0.13072
0.083437
0.86683
1.6541
0.59825
0.90207
5.205
7.8726
6.5939
6.2471
8.7681
9.895
5.3293
0.74676
0.62714
2.6548
5.1911
6.2666
3.8698
0.74138
0.30801
2.1853
4.5162
4.9943
0.84088
0.32275
0.27583
0.20048
0.26037
0.48604
0.29651
0.052176
0.097394
0.29561
2.1342
3.6315
1.8273
0.33171
3.5341
6.4446
4.8109
3.6317
5.6965
8.3778
6.4412
2.3281
0.56899
0.39527
0.76915
1.4773
1.2692
0.31585
0.088172
0.73593
1.7435
1.8283
0.30446
1.3329
1.9752
1.3782
0.83691
0.76569
0.64494
0.3278
0.32813
1.4832
4.2912
5.461
3.1373
0.46341
1.1016
3.251
3.2006
3.0767
5.2621
8.1455
7.6852
5.3154
4.7737
5.5645
4.7125
2.2819
0.66318
0.12887
0.034799
0.037959
0.12269
0.12861
1.4864
3.7136
4.3242
2.3161
0.86439
0.73405
1.1067
1.3204
1.6101
3.0198
5.4408
6.2918
4.3952
1.5113
0.1542
0.85857
2.0966
3.9448
7.3599
10.309
10.129
9.2554
11.302
15.356
15.726
10.089
3.4097
0.37323
0.080177
0.089868
0.072641
0.31108
1.7772
4.0653
4.0421
1.6675
0.48088
0.62318
1.401
1.8735
1.8132
2.2199
3.6503
5.1594
4.7714
2.3848
0.40057
0.18556
1.5095
4.645
9.2859
12.112
11.416
10.702
12.829
16.216
16.229
10.49
3.2293
0.22644
0.068425
0.024003
0.031011
0.28232
0.4209
1.4779
1.6508
0.69389
0.31516
0.69142
1.5374
1.7013
1.0201
0.67682
1.3436
3.1631
3.8105
1.9124
0.25633
0.23504
1.446
4.2467
8.1302
9.7693
8.2985
7.0723
7.4963
7.9083
6.5633
3.3592
0.59897
0.19172
0.13411
0.17424
0.58523
0.2962
1.5187
0.37196
0.18053
0.27771
0.4883
1.0861
1.9936
2.2189
1.3993
0.65599
0.8055
2.0266
2.345
0.81444
0.11182
0.63785
1.4352
2.8734
4.841
5.1395
3.5839
2.4716
2.076
1.424
0.62224
0.24186
0.44923
0.71911
0.20903
0.43953
2.0191
2.6338
6.3647
2.6489
0.28711
0.27083
0.90355
1.7448
3.3053
4.939
4.7405
2.8078
1.4802
1.3499
0.98374
0.21409
0.32601
0.75138
0.88253
1.2969
2.131
2.1953
1.3438
0.74477
0.36
0.071233
0.53179
1.1649
1.1173
0.63246
0.10844
0.55515
3.1911
6.5688
10.775
5.3884
0.77363
0.26911
1.0918
2.3205
5.4864
10.105
10.96
6.1974
1.7327
0.39095
0.16161
0.11622
0.24061
0.27229
0.22819
0.41881
0.96483
1.3458
1.2704
1.0484
0.46337
0.10591
1.1087
1.856
1.1578
0.31555
0.032783
0.56525
3.5889
9.2355
11.475
7.0517
1.4893
0.13171
0.91284
2.6966
7.4988
14.447
15.063
7.1294
0.95865
0.19502
0.27328
0.094253
0.043448
0.026968
0.037649
0.28983
0.82077
1.3937
2.0244
2.3574
1.3348
0.1476
0.99244
2.0543
1.4188
0.39018
0.027832
0.40236
2.8255
8.3897
7.9096
6.6217
2.1812
0.12581
0.65822
2.6604
7.4692
13.949
14.158
6.3041
0.64469
0.39667
0.4356
0.050609
0.11436
0.15025
0.085897
0.50464
0.97723
1.238
1.9571
2.6803
1.7119
0.2344
0.83851
2.38
2.4567
1.2333
0.28358
0.103
1.0441
4.3319
0.79659
1.3578