# vtk DataFile Version 2.0
Square of the field
ASCII
DATASET STRUCTURED_POINTS
DIMENSIONS 32 32 32
ORIGIN 0 0 0
SPACING 0.0625 0.0625 0.0625
POINT_DATA 32768
SCALARS q float 1
LOOKUP_TABLE 1
6.5394
5.1647
3.7441
3.0032
2.1797
0.76581
0.11261
1.2803
2.758
2.6525
1.273
0.15742
1.4479
5.9564
7.4319
2.9688
0.17081
0.20595
0.30423
2.2872
3.051
0.97829
0.4256
2
4.2816
7.4275
10.521
9.854
4.4736
0.43716
1.9867
5.5699
5.2713
4.061
2.9169
2.2631
1.6277
0.62577
0.074242
0.99823
2.4445
2.6207
1.4495
0.20442
1.0543
4.479
5.3142
2.1913
0.20664
0.056809
0.14358
1.0448
0.90297
0.4813
2.9652
5.9438
7.576
8.6273
8.2964
5.046
1.1772
0.48149
2.6018
4.9281
2.4428
1.6492
0.91907
0.44816
0.23803
0.086913
0.043693
0.58077
1.6282
1.9706
1.0774
0.13735
0.78814
2.2069
1.842
0.60198
0.12575
0.077797
0.022182
0.12008
0.53558
3.1416
7.997
10.89
11.002
9.4547
5.8324
1.4739
0.47491
2.1539
3.0049
2.9555
0.5731
0.26563
0.066863
0.1475
0.23113
0.093871
0.053191
0.34439
1.3215
2.0914
1.2709
0.17804
0.40523
0.57846
0.20181
0.072801
0.07318
0.10907
0.047928
0.78996
3.715
9.243
14.17
14.924
12.789
8.9921
3.8602
0.37071
1.5982
3.5113
2.57
1.1892
0.14624
0.043255
0.15518
0.7809
1.0707
0.53278
0.18698
0.40176
1.6284
3.1352
2.4325
0.62247
0.098701
0.13756
0.41065
0.17419
0.4715
1.5858
0.58588
1.2656
7.2685
14.359
16.447
13.253
8.9694
5.1211
1.7939
0.15289
1.3135
2.4489
1.4685
0.46725
0.38878
0.12411
0.31563
1.7795
3.0847
2.543
1.5519
1.4656
2.63
4.2517
4.0364
2.3561
1.6042
2.21
2.5337
0.70725
1.2493
4.4183
2.2492
1.0095
7.874
13.846
11.707
5.8092
2.0754
0.71926
0.23172
0.046645
0.34495
0.75859
0.66483
0.51176
0.74556
0.17738
0.71898
4.1005
8.7205
10.227
8.2135
5.6433
4.3492
4.4521
5.0376
5.7032
7.0321
8.5424
7.0968
2.0775
0.94941
3.9563
2.0842
0.93546
6.6672
9.5525
5.1059
0.82097
0.68401
1.1854
0.56282
0.073765
0.061918
0.10008
0.29616
0.73426
0.38518
0.1052
1.706
7.821
17.939
24.134
20.487
11.621
5.2045
3.4793
5.2229
9.6978
14.785
16.388
11.721
3.9252
0.43751
1.2934
0.56447
1.0795
4.7828
5.0772
1.4227
0.78809
3.6066
4.3184
2.0232
0.21071
0.27698
0.345
0.1213
0.41971
0.05458
0.21572
2.2907
9.5713
22.869
31.497
24.884
11.125
3.1717
1.8458
4.9482
12.449
18.996
18.412
11.748
4.501
0.74631
0.13011
0.14325
1.2388
2.8787
2.137
0.35199
1.8023
5.2234
5.8991
3.0058
0.3567
0.44818
0.82762
0.22734
0.085564
0.25457
0.090338
1.2963
6.9044
18.027
23.931
15.474
4.3594
0.52679
0.58982
4.421
12.568
16.715
13.132
7.406
3.4894
1.4644
0.75254
0.89079
1.5585
1.8644
0.95581
0.22997
1.9865
5.1619
6.1716
3.6062
0.64027
0.21354
0.51666
0.13498
0.26345
2.0701
0.66573
0.23989
2.9216
9.7298
12.364
5.6251
0.53837
0.37907
0.20812
3.4252
10.089
11.156
6.7764
3.3995
2.2664
2.0007
1.9221
2.0195
2.2101
2.0566
1.0906
0.22235
1.4165
4.4983
6.3427
4.5973
1.5317
0.20706
0.15983
0.88346
2.3
5.6061
2.6384
0.54917
0.69865
4.5207
6.4918
2.3202
0.27424
1.3075
0.3794
1.9546
6.3628
6.1982
2.9991
1.3442
1.1551
1.3297
1.4816
1.8651
2.7351
3.5864
2.8942
0.86591
0.51754
3.1153
5.8984
5.6168
3.26
1.7188
1.9422
4.051
6.4486
7.7593
4.6358
1.8261
0.23404
2.1164
4.554
2.0687
0.2231
1.336
0.59494
0.83545
3.4902
3.401
1.3865
0.42167
0.245
0.19167
0.19114
0.62868
2.7138
6.214
6.9064
3.301
0.35974
1.4209
4.2545
5.3833
4.7281
4.2652
5.1446
7.2363
8.8842
7.4326
5.1292
2.6978
0.50141
0.87359
2.9481
1.7018
0.16978
1.0695
0.65595
0.45367
2.4548
2.7941
1.1755
0.22129
0.071673
0.17517
0.21248
0.11816
2.3743
7.9165
10.127
5.7946
1.0657
0.39508
2.2865
3.8925
4.7675
5.9124
7.5681
8.8015
8.8242
6.8281
4.4964
2.3008
0.46401
0.33744
1.2164
0.57929
0.25909
1.1491
0.66658
0.50828
2.8724
4.1614
2.58
0.85207
0.20158
0.13534
0.18564
0.067465
1.6538
5.8801
7.6375
4.5699
1.1237
0.099387
1.0222
2.472
3.9434
6.0135
8.5246
9.7451
8.8812
6.8234
3.5301
1.0737
0.134
0.47827
0.53267
0.10182
0.55414
1.2164
0.58819
0.86162
4.2498
7.1949
6.1981
3.4391
1.5211
0.51304
0.093444
0.055383
0.56163
1.7024
1.9773
1.0976
0.30674
0.04914
0.67779
2.0762
3.606
5.6273
8.5071
10.474
9.6835
5.845
1.8635
0.25271
1.3583
2.2751
1.2263
0.16527
0.3678
0.67596
0.38914
1.4844
5.4662
9.2096
8.8532
5.789
3.0807
1.3035
0.27957
0.05185
0.21811
0.38774
0.49054
0.41747
0.23696
0.37719
1.3974
3.1288
4.3669
5.541
7.9026
10.218
9.5344
3.1406
0.39022
2.3731
6.6161
7.4203
4.266
1.1782
0.15324
0.14863
0.40217
1.7145
4.2112
6.1082
5.5144
3.3119
1.5018
0.47512
0.091994
0.6003
1.8086
2.9926
3.3989
2.5725
1.6289
1.8765
3.5483
5.3194
5.5023
5.2358
6.4391
8.2456
7.225
0.93641
1.3139
7.5389
13.385
13.156
8.5434
3.5871
0.84846
0.18824
0.34275
0.8355
1.1799
1.1442
0.74645
0.31025
0.18784
0.3348
0.8785
2.2017
4.0462
5.2546
4.7103
3.0777
2.2441
2.9817
4.867
6.1014
5.3456
4.1241
4.2821
5.2028
4.0651
0.26277
2.2594
8.8888
13.591
12.97
9.4416
5.0245
1.6116
0.27049
0.062736
0.10219
0.24923
0.59712
0.87457
0.95078
1.003
1.2078
1.7591
2.7313
3.7117
3.6431
2.169
0.92127
0.75946
1.5548
2.9825
4.0171
3.6961
2.7578
2.5011
2.7207
1.8816
0.10098
1.5253
5.3671
7.8393
7.5303
6.096
3.956
1.5671
0.20426
0.12058
0.6158
1.3061
1.9821
1.8647
1.0139
0.49721
0.5034
0.83568
1.2863
1.5315
1.0526
0.22193
0.15719
0.13422
0.1626
0.72276
1.5556
2.0469
1.9047
1.5974
1.297
0.69174
0.35823
1.2958
2.6702
3.1033
2.7064
2.3985
2.003
1.0277
0.12313
0.32334
1.0682
1.3584
1.3228
0.80218
0.16316
0.32724
0.33164
0.14385
0.30836
0.53383
0.31594
0.068455
0.61974
0.67607
0.1676
0.06079
0.45492
1.2189
1.6322
1.1529
0.41409
0.13253
3.0778
3.2979
2.4996
1.4509
0.94321
0.9924
1.0818
0.61234
0.066543
0.31857
0.61082
0.33189
0.14651
0.24239
1.2144
2.699
2.1434
0.54494
0.14881
0.68505
0.7887
0.18331
0.30302
0.55987
0.25131
0.045088
0.20808
1.0077
1.6339
0.75487
0.23148
1.6291
8.9204
7.678
3.8003
1.4142
0.97481
1.4137
1.5169
0.65356
0.078164
0.27377
0.21907
0.39198
1.4811
3.2339
6.0992
7.7685
4.9987
1.1756
0.18872
1.3198
2.0462
1.0959
0.23055
0.20803
0.15211
0.053379
0.17895
1.0941
1.7585
0.50933
0.93843
5.2982
11.553
10.129
4.7481
1.8458
1.8313
3.1847
3.4291
1.5552
0.25668
0.2828
0.32198
1.4599
4.8788
9.8863
14.468
13.678
6.7525
1.129
0.27709
1.6683
2.8359
2.3925
0.98461
0.24771
0.11035
0.048158
0.18166
1.328
2.0012
0.51005
1.1341
6.4315
10.446
9.3432
4.3409
1.7321
2.1691
4.6298
5.9141
3.6798
1.0918
0.40121
0.42302
1.4079
5.8254
13.831
18.935
14.449
5.1152
0.42065
0.49735
1.5725
2.8555
3.6138
2.456
0.72512
0.11953
0.037501
0.18686
1.3112
1.713
0.37322
1.0284
5.6346
11.41
8.7934
3.243
0.798
1.0788
3.716
6.668
5.8544
2.655
0.67917
0.30479
0.3647
2.5925
9.348
13.309
8.4355
1.8885
0.15718
0.81166
1.4875
3.1384
5.536
5.2576
2.2478
0.3577
0.037748
0.097015
0.60267
0.60179
0.142
2.0144
7.263
13.026
7.9177
1.9143
0.13649
0.17268
1.8526
5.2119
5.8732
3.1348
0.57805
0.4544
0.88607
0.33843
2.4128
4.5718
2.5791
0.3054
0.27939
0.85979
1.625
4.1821
8.3158
8.9814
4.8259
1.0527
0.087028
0.15847
0.13757
0.10137
0.61195
3.7541
10.07
8.6864
4.071
0.56492
0.11477
0.06398
0.81208
3.1198
3.8161
1.9646
0.21562
1.0956
2.7323
1.5923
0.25668
0.49844
0.41851
0.090845
0.11335
0.4637
1.7031
5.2048
9.837
10.237
5.5393
1.1006
0.28876
1.4053
1.5888
0.97075
1.0221
3.1697
7.6458
1.6732
0.46388
0.16936
0.28744
0.084312
0.37738
1.5339
1.875
0.94139
0.11645
1.0718
2.9752
3.1217
1.7084
0.47249
0.073271
0.32336
0.39694
0.27005
1.8085
5.6466
8.8257
7.6383
3.3152
0.35975
1.3353
4.4899
5.2222
2.7813
0.88542
0.82446
1.7565
0.90901
1.1155
1.0135
0.60506
0.16977
0.097333
0.64794
1.1181
0.92598
0.30822
0.29594
1.4509
3.0525
3.9198
2.6456
0.48817
0.4622
0.91699
0.38277
2.2389
5.6826
6.3851
3.8314
0.94487
0.41007
3.3897
8.2489
9.4961
5.0184
0.81117
0.16115
0.61299
4.5099
3.7168
2.5317
1.6616
0.928
0.20159
0.23636
1.1564
1.8404
1.3722
0.39457
0.29288
2.1795
5.6184
5.8149
1.7839
0.22567
0.69876
0.38963
2.622
4.8958
3.4012
0.92215
0.24291
1.743
5.6301
10.684
11.787
6.2397
0.79139
1.1044
3.6733
2.9982
1.9416
1.5533
1.6704
1.2322
0.28022
0.26012
1.2696
2.0158
1.6083
0.60217
0.065809
0.58761
2.0229
2.3079
0.86059
0.058933
0.12701
2.4036
8.586
9.5067
3.4704
0.27317
1.8718
5.1963
8.9513
12.332
12.558
7.2208
1.21
0.80474
2.9662
2.7741
1.5498
1.0501
1.0761
0.86902
0.25524
0.13664
0.89795
1.5731
1.2671
0.50231
0.062281
0.19784
0.70763
0.66813
0.23551
0.26434
0.1358
1.045
4.6476
4.6087
0.98217
1.09
4.2696
7.6065
10.003
10.192
7.2491
2.5675
0.31489
1.6932
3.3031
1.515
0.57154
0.25416
0.18814
0.13557
0.040711
0.12945
0.58044
0.91958
0.58508
0.11673
0.034256
0.14101
0.25367
0.42104
0.70351
0.80743
0.37033
0.16075
0.94905
0.65158
1.0295
4.4318
7.701
9.3422
9.0455
6.0548
1.9635
0.38073
1.93
3.2489
2.8359
0.38505
0.080188
0.2035
0.31838
0.27837
0.17823
0.19595
0.4311
0.72478
0.5348
0.090535
0.094045
0.13889
0.18397
0.61773
0.76068
0.38617
0.11077
0.047478
0.11729
1.1449
5.0197
9.4818
10.482
9.0286
6.2579
2.5369
0.26903
1.7606
4.267
3.7947
1.7273
0.10777
0.21657
1.0089
1.9221
1.9403
1.1614
0.62466
0.67558
1.2226
1.4717
0.67244
0.073886
0.034559
0.16099
0.48713
0.20853
0.45685
1.6409
1.1494
0.25159
2.8802
8.5453
11.309
8.6602
4.8705
2.1428
0.4843
0.31536
2.077
3.6517
2.7391
0.99309
0.31692
0.2092
1.9245
5.1102
6.7458
5.3672
3.3419
2.5145
2.9311
3.4294
2.4238
0.94338
0.46276
0.6948
0.72368
0.16917
2.6015
6.787
4.6134
0.52383
3.2855
8.4738
8.1056
3.5003
0.73738
0.31084
0.4122
0.58212
1.1764
1.8365
1.739
1.0965
0.70375
0.20901
2.9813
9.902
16.683
17.541
13.327
8.6189
5.7834
4.5708
3.733
2.9314
2.6932
2.7751
1.7495
0.3531
3.8386
9.0903
5.7404
0.59775
3.3932
6.914
4.3764
0.6596
0.6805
1.7928
1.5523
0.74286
0.4268
0.66376
1.2304
1.4965
0.44472
0.40038
4.2727
14.467
28.283
35.33
29.526
16.983
7.2876
3.538
3.4345
4.9685
6.544
6.2665
3.2937
0.51913
2.6643
5.7417
2.8776
0.47389
3.5488
5.2264
2.1867
0.20243
1.6931
2.8773
1.9638
0.53293
0.061649
0.12017
0.64525
1.108
0.10848
0.59549
4.4022
14.912
31.91
43.127
35.912
17.559
4.9334
1.5182
2.4961
6.1599
9.3544
8.3765
4.1008
0.70441
0.74141
1.3551
0.40442
1.1643
3.6135
3.535
0.93391
0.34935
2.021
2.7443
1.5975
0.26032
0.055664
0.062627
0.20156
0.44604
0.22753
0.2286
2.4583
10.049
23.832
32.735
24.546
8.8274
1.1953
0.21306
1.5871
5.7554
8.5016
6.6735
3.1415
0.90054
0.28648
0.42936
1.428
3.3358
4.2683
2.7584
0.47901
0.48406
2.0961
2.6318
1.4612
0.23621
0.038967
0.048339
0.24557
0.56226
1.2548
0.23219
0.60032
4.4209
12.475
16.721
9.9138
1.7563
0.31154
0.25678
0.79103
3.8683
5.1581
3.2927
1.4489
0.82306
1.0861
2.3215
4.4603
6.3186
6.3613
4.0022
0.95652
0.29532
1.9315
2.9388
1.9615
0.58087
0.10329
0.22147
1.0443
1.878
2.7988
0.97805
0.12966
1.4459
5.7068
7.7069
3.3955
0.26207
1.3176
0.90455
0.28025
1.7792
2.1883
1.03
0.33358
0.2824
0.65256
1.8939
4.3704
7.5737
9.7139
8.0814
3.2361
0.27926
1.4343
3.3387
2.9934
1.538
0.80577
1.1177
2.4585
3.6407
3.3619
1.615
0.36539
0.43919
2.9235
4.6052
1.9634
0.20727
1.4943
1.2217
0.17364
0.59925
0.73841
0.22042
0.23663
0.48261
0.37567
0.22962
1.5951
6.3295
12.454
13.09
6.6483
0.91067
0.89961
3.2963
3.8364
2.8995
2.2689
2.5456
3.4799
4.146
3.1149
1.7679
0.59148
0.20585
1.6294
3.0248
1.4033
0.17702
1.3802
1.3986
0.28856
0.28267
0.42261
0.1858
0.77413
1.7287
1.9087
0.86635
0.34672
4.6677
12.548
14.323
7.6551
1.3269
0.46748
2.5054
3.7032
3.8475
3.9483
4.2007
4.2776
3.9864
3.242
1.7186
0.51405
0.18043
0.94338
1.3958
0.41578
0.55869
2.2445
2.0688
0.46425
0.36105
0.82232
0.37639
0.47779
1.1953
1.4915
0.78296
0.2526
3.6343
9.4423
10.027
5.0979
1.02
0.17435
1.5063
3.1048
4.2435
5.1543
5.7205
5.5013
4.5738
4.0568
1.5947
0.24281
0.50367
1.0932
0.61913
0.14744
1.8225
3.9706
3.013
0.57043
0.75529
2.25
1.8259
0.71361
0.27747
0.16831
0.080471
0.49171
2.6131
4.7479
3.889
1.6373
0.3391
0.11698
1.3341
3.516
5.2691
6.3756
7.2579
7.4435
6.2966
4.8038
1.0592
0.48691
2.4921
3.1311
1.2846
0.18478
1.9307
3.8017
2.5796
0.42083
1.153
3.5178
3.7993
2.4588
1.3506
0.66203
0.36945
0.58512
1.1564
1.1788
0.51801
0.14869
0.11116
0.62785
2.7678
5.9115
7.8151
8.567
9.6537
10.464
8.8392
4.047
0.39507
3.025
7.7663
8.3398
4.5307
0.90647
0.3921
1.2038
0.85858
0.17761
0.6998
1.928
2.1666
1.4567
0.78045
0.34671
0.1556
0.17379
0.25827
0.32489
0.52024
0.65598
0.85539
2.1685
5.4064
8.9458
10.509
10.968
12.361
13.471
10.456
2.0313
1.1894
7.4911
13.096
13.002
8.694
3.7027
0.76586
0.084511
0.062332
0.078705
0.18159
0.29137
0.30811
0.3068
0.38825
0.53888
0.73217
0.8824
0.93968
1.0008
0.93802
0.7444
1.0082
2.5902
5.6588
8.7356
10.435
11.427
12.985
13.38
8.8717
0.65435
2.2436
8.3415
11.741
10.831
8.0907
4.8093
1.8612
0.33612
0.024714
0.33597
1.251
2.2735
2.5757
2.3103
2.1787
2.3961
2.652
2.3991
1.6848
0.96158
0.36987
0.12385
0.22069
1.0404
2.7765
5.0322
7.3424
9.4032
10.809
9.8632
5.2413
0.187
1.7554
4.8281
5.6939
4.6419
3.6342
2.7024
1.3413
0.22992
0.15443
1.0602
2.7155
4.2636
3.9717
2.2934
1.3998
1.6555
2.3392
2.1922
1.2101
0.36381
0.04001
0.13571
0.064225
0.12555
0.60853
1.6309
3.6029
6.1778
7.4227
5.6284
2.1407
0.43908
1.4991
2.134
1.5994
0.8693
0.68747
0.74469
0.48321
0.066552
0.29097
1.1202
2.0135
2.6014
1.7869
0.39431
0.23742
0.19513
0.79029
1.3451
0.87157
0.26995
0.041318
0.12316
0.11808
0.088303
0.084574
0.22135
1.1113
3.1598
4.0511
2.1423
0.34095
3.4755
3.8072
2.1799
0.61422
0.10773
0.13624
0.3122
0.25209
0.036006
0.12022
0.24849
0.25156
0.27042
0.35597
1.6912
3.2892
1.5719
0.21144
1.0606
1.4688
1.1803
0.74508
0.51026
0.44718
0.26533
0.053262
0.036046
0.18872
1.236
1.4882
0.32181
1.2227
10.263
9.3876
4.2793
1.0576
0.36798
0.68231
1.1345
0.76136
0.17397
0.071724
0.43735
1.6117
2.9285
4.7012
8.4379
10.241
5.2463
0.53122
0.98372
2.6095
3.2683
3.0921
2.4867
1.595
0.50824
0.061513
0.1488
0.076934
0.56762
0.39607
0.60139
5.038
13.277
12.39
5.9437
2.0748
1.6433
3.0717
4.3585
3.2982
1.4979
1.0248
2.2394
5.238
8.9219
13.359
18.272
17.565
8.3847
0.95938
0.90185
3.0909
4.6347
5.4775
5.0628
3.0349
0.7324
0.052118
0.10957
0.16879
0.63554
0.23411
1.0014
6.6148
10.93
10.065
4.8582
2.0032
2.4271
5.5321
8.8835
8.5401
5.6143
3.6559
3.6899
5.7042
10.353
17.939
23.513
19.228
7.6563
0.66342
0.9747
2.7628
4.4489
6.5553
7.1696
4.5587
1.2065
0.061889
0.046434
0.47917
0.81343
0.18114
1.0259
5.6808
10.17
7.5691
2.604
0.62503
1.1134
4.6095
10.233
12.506
9.8135
5.5914
2.7221
2.216
5.09
12.658
18.01
13.071
3.9479
0.23328
1.1397
2.2544
3.9803
7.2225
9.0807
6.5297
2.3771
0.4791
0.33198
0.78214
0.60576
0.11979
1.9121
6.6595
10.391
5.5286
0.86102
0.14863
0.14069
2.0411
7.4728
10.908
8.6538
3.6277
0.58116
0.30399
0.57596
3.8403
7.4208
5.0732
1.0146
0.26201
1.1936
2.0217
4.0584
7.8951
10.113
7.754
3.4737
1.0638
0.5691
0.61684
0.27102
0.28847
2.985
8.3716
6.3284
2.2019
0.33129
1.1513
0.53063
0.67535
4.1022
6.2203
4.0612
0.80089
0.90545
2.8316
1.6705
0.3474
1.1381
0.86701
0.097783
0.37098
1.16
2.2911
4.6031
7.5532
8.2236
5.6737
2.3574
0.60595
0.27939
0.23428
0.12005
0.2513
1.9399
5.6979
1.114
0.27696
1.2121
2.0683
0.81474
0.29534
2.1431
2.9021
1.3112
0.15542
1.9383
4.4834
3.8981
1.5699
0.35965
0.091235
0.095263
0.39673
1.4159
3.5385
5.8547
6.3781
4.4901
1.929
0.38882
0.38397
1.2311
1.5012
0.76881
0.1891
0.33113
1.144
0.45159
0.92989
1.8551
1.9489
0.69972
0.15228
1.242
1.7341
0.87962
0.11186
0.79083
2.4262
3.4248
3.1971
2.0375
0.8031
0.26407
0.44132
2.2035
6.2512
8.3185
5.6956
1.9257
0.23766
0.62337
2.4731
5.1389
6.2198
3.6126
0.60076
0.095094
0.34031
2.0481
1.7015
1.731
1.6949
0.85359
0.0987
0.64492
1.4907
1.5138
0.75365
0.13042
0.44051
1.7188
3.2885
3.2235
1.3879
0.24855
0.34826
2.8663
8.9734
10.609
5.2011
0.73836
0.52237
2.6349
5.9823
10.138
11.895
7.4659
1.4295
0.42533
1.8633
0.86984
0.19278
0.15684
0.2623
0.15361
0.34899
1.176
1.6823
1.57
1.1025
0.59985
0.25162
0.12289
0.16213
0.17782
0.10593
0.12618
1.0235
6.0892
14.599
14.406
5.5352
0.44156
1
3.4582
6.1857
9.1847
11.1
7.895
1.7686
0.42065
1.586
0.78718
0.14754
0.16134
0.097024
0.089797
0.29696
0.96805
1.4519
1.2036
0.60726
0.26641
0.21897
0.45066
0.9605
1.225
0.87648
0.34022
0.29195
3.5858
10.198
10.06
3.2856
0.29591
1.8628
4.865
7.4546
8.5066
7.3694
3.5042
0.43301
1.3292
2.1507
0.49016
0.26987
0.43071
0.14907
0.06413
0.23569
0.69559
1.0002
0.67613
0.15663
0.013674
0.076701
0.74156
2.3777
3.3748
2.4718
1.0188
0.1546
1.1601
3.7857
3.1297
0.59107
1.2939
3.6821
5.6827
6.2174
4.6223
1.9686
0.38848
1.7363
3.5637
2.5384
0.1897
0.90153
1.343
0.77253
0.37544
0.35319
0.51912
0.65283
0.49372
0.14246
0.013663
0.055416
0.65048
2.3006
3.1868
1.9866
0.54436
0.085757
0.49374
0.96831
0.41267
1.0906
3.6527
4.9607
4.5669
3.1039
1.1631
0.19608
1.6437
4.5743
4.8353
1.9824
0.20176
1.6572
2.9904
2.8941
2.1525
1.4566
1.0385
0.95116
1.0526
0.91573
0.42349
0.16487
0.38926
1.1362
1.3881
0.48547
0.29413
1.2989
1.6807
0.82881
0.31672
2.1029
3.973
3.0623
1.3442
0.41204
0.24329
0.79172
2.4548
4.2919
3.6904
1.1964
0.16519
1.4564
4.3915
7.0073
7.741
6.3994
4.4767
3.345
3.1434
2.9387
1.7739
0.60305
0.27477
0.39781
0.31728
0.21464
2.5205
6.0688
5.4571
1.7263
0.36818
1.8872
2.1701
0.62371
0.55937
1.5695
1.9378
1.6942
1.8359
2.3996
2.2644
1.0497
0.24975
0.98741
5.1351
11.811
17.573
18.385
14.664
9.8322
6.2064
4.0044
2.3302
1.0558
0.50659
0.35058
0.1182
1.0246
6.0507
11.368
8.6963
2.1815
0.44701
1.7145
1.0897
0.28389
2.0712
3.7893
3.3473
1.7973
0.90569
1.0161
1.4995
1.2412
0.19043
0.9999
5.5626
14.645
25.827
31.767
27.61
16.816
7.2422
2.7485
1.5223
1.3608
1.3342
0.93973
0.2428
1.5653
7.1265
11.051
6.9396
1.2436
0.71696
1.8038
0.74046
0.34817
2.0779
3.0621
2.1954
0.76625
0.15784
0.26964
0.92764
1.0165
0.092196
0.9242
4.7603
13.132
25.37
34.103
30.267
16.357
4.8539
0.94613
0.67085
1.6384
2.648
2.146
0.56501
0.76011
3.6109
4.4982
1.8244
0.39076
1.4622
1.6946
0.38461
0.51305
1.6533
1.596
0.68378
0.088147
0.029634
0.067279
0.6166
0.68884
0.26158
0.27827
2.3205
7.7782
16.617
23.189
19.438
8.4585
1.3915
0.077408
0.21317
1.4802
2.9963
2.5855
0.88955
0.10954
0.36443
0.3652
1.0747
2.912
3.6211
2.0159
0.24656
0.72189
1.5302
1.0004
0.23018
0.048941
0.041979
0.14218
0.85274
0.98815
0.92482
0.13356
0.54615
3.0913
7.6106
10.358
7.1599
1.8245
0.19005
0.40354
0.11036
0.74424
1.7139
1.3396
0.418
0.074908
0.25559
1.8864
5.5426
8.5439
8.0784
4.3635
0.80052
0.34862
1.1365
0.92963
0.29271
0.044612
0.024383
0.33804
1.23
1.6569
1.1346
0.26998
0.12922
1.2666
3.3837
4.1035
1.9288
0.16781
0.75432
1.0289
0.32161
0.15216
0.35637
0.18141
0.25636
0.51586
0.23966
1.5389
6.2417
11.582
13.455
9.7724
3.4502
0.26944
0.6328
1.171
0.75985
0.27645
0.15129
0.36622
0.97412
1.5088
0.58058
0.13951
0.20319
1.0134
2.3313
2.5664
0.97732
0.096617
0.80459
1.1365
0.69286
0.29449
0.23015
0.71069
2.3693
3.8881
2.6375
0.45294
2.7456
10.183
16.512
14.815
6.7048
0.88455
0.47434
1.6737
1.6518
0.97511
0.53002
0.42166
0.5468
0.74337
0.26019
0.14537
0.4607
1.1964
2.1366
2.2653
0.95253
0.071407
0.53911
1.0294
0.98968
0.80699
0.98477
2.3256
5.3568
7.8271
6.3549
1.827
0.95691
8.0226
16.019
15.026
6.8881
1.0107
0.41785
1.9102
2.4531
2.042
1.4105
0.86459
0.55637
0.42383
0.2889
0.22005
0.67249
1.3958
1.8554
1.5051
0.43822
0.1967
1.0271
1.4783
1.1814
0.85729
1.0757
2.3592
4.7078
6.0533
4.6475
1.3173
0.94562
7.1497
13.225
11.264
4.8226
0.80474
0.22449
1.6567
3.1159
3.5159
2.9331
1.8955
1.051
0.58411
0.60024
0.21958
0.92234
1.9968
2.0247
0.89657
0.11618
1.1995
2.8259
2.7197
1.3437
0.482
0.44093
0.72888
1.1925
1.2616
0.74761
0.18927
1.7591
6.4082
9.0869
6.3999
2.4976
0.50001
0.16826
1.9538
4.8861
6.3317
5.6225
3.9751
2.4964
1.4405
1.5842
0.21
1.5389
3.7924
3.7114
1.4447
0.16433
1.7046
3.5976
3.0598
1.2237
0.26339
0.29393
0.37992
0.33493
0.36692
0.4689
0.8644
2.2462
4.3067
4.4642
2.3926
0.73576
0.11093
0.63511
3.8353
8.5856
11.036
10.274
8.2863
6.3054
4.0907
2.5987
0.26146
2.8758
6.6198
6.9842
3.8993
0.81586
0.38047
1.2728
1.3157
0.74389
0.34324
0.22258
0.22516
0.34976
0.66818
0.90517
0.97235
1.1992
1.5295
1.2135
0.48057
0.10088
0.19403
1.705
5.9353
11.346
14.72
15.207
14.294
12.337
8.0552
1.8201
0.70347
4.4051
7.6783
8.072
5.9589
2.878
0.76093
0.13175
0.12242
0.46596
1.1718
1.4687
1.0139
0.4097
0.18863
0.22032
0.197
0.14668
0.13472
0.12399
0.079871
0.038194
0.21833
1.6236
4.8563
9.1697
13.408
16.466
17.572
15.29
8.6677
0.4976
1.5908
4.4557
5.2245
4.5373
3.662
2.5831
1.3209
0.40546
0.040815
0.65599
2.8097
4.7094
4.2133
2.4518
1.3289
1.097
1.2298
0.98025
0.36841
0.052104
0.030496
0.053566
0.047324
0.65038
2.093
4.5312
8.5127
13.111
15.195
11.946
5.0418
0.27615
1.8414
2.8501
2.0061
0.96597
0.61252
0.52306
0.34664
0.097731
0.1364
1.1674
3.7681
6.1052
5.1055
2.3586
1.0758
1.3273
2.279
2.1198
0.85884
0.14035
0.021512
0.045552
0.13313
0.51621
0.92573
1.676
3.929
7.803
9.6776
6.343
1.611
1.0009
1.9867
1.6805
0.54705
0.13074
0.38315
0.39638
0.26622
0.21809
0.44463
1.1751
2.4313
3.3076
2.0323
0.38726
0.25146
0.27236
1.7604
2.6817
1.5319
0.60783
0.42608
0.64989
1.2313
1.6235
1.1347
0.65786
1.2395
3.3497
4.4856
2.1239
0.25749
3.7188
3.9702
2.2398
0.52097
0.067185
0.34023
0.45928
0.43679
0.39837
0.36219
0.30961
0.30269
0.32228
0.43546
2.085
3.3292
0.96628
0.88219
3.1481
3.2787
2.7155
2.8427
3.4491
3.848
3.0569
1.2481
0.22189
0.16891
0.8726
1.2317
0.29279
1.3203
8.4567
7.9928
4.3082
1.528
0.51386
0.3257
0.3047
0.19435
0.11999
0.086539
0.44183
1.6815
2.9374
4.6331
8.2476
9.436
3.8683
0.3998
2.9519
5.427
6.6637
7.7639
8.1014
6.4517
3.1385
0.5859
0.081556
0.046075
0.11593
0.13767
0.59952
4.2434
9.7064
9.2547
5.4213
2.9485
2.4772
2.8403
2.9973
2.238
1.2828
1.2342
2.7121
5.5844
8.3778
11.535
15.508
15.044
6.8478
0.57578
2.0535
5.7964
9.0361
11.787
12.232
8.4425
2.7807
0.17154
0.21909
0.11051
0.053928
0.066939
1.0932
5.2061
6.6788
6.2125
3.7363
2.589
3.2973
5.2179
7.2904
7.8529
6.6539
5.4443
5.3175
6.365
9.1538
14.568
19.472
16.908
7.2464
0.66814
1.3002
4.4011
7.9392
11.99
13.937
10.293
3.5671
0.30132
0.063606
0.078293
0.11914
0.080047
1.0199
3.8639
4.7068
3.3579
1.3042
0.63947
1.2661
3.7686
8.3233
12.309
12.494
9.0325
4.8928
2.9628
4.5229
10.743
16.702
13.718
5.1142
0.39888
0.81719
2.6055
5.3277
9.5493
12.9
11.428
5.8416
1.7879
0.7606
0.77649
0.41301
0.083689
1.1585
3.3982
3.6636
1.5075
0.22334
0.45907
0.22207
1.1752
5.6632
10.756
11.177
6.3706
1.561
0.25492
0.60315
4.2917
9.2493
7.5611
2.3306
0.15113
0.49101
1.2937
3.067
6.3007
9.3596
9.8285
7.3177
4.3789
2.9526
2.2173
0.96516
0.10505
1.0386
3.1999
1.4969
0.39115
1.5527
3.0351
1.5233
0.27885
2.8458
5.9079
5.1467
1.6347
0.38212
1.5478
0.75372
0.7108
2.8266
2.3006
0.46579
0.15058
0.50185
0.9283
1.8933
3.2942
4.3879
4.9327
4.8049
4.0354
3.0866
2.0474
0.96799
0.21368
0.32684
1.4679
0.21661
1.0295
3.7016
4.7617
2.0684
0.18071
1.5617
2.6451
1.5368
0.17336
1.0236
2.5141
1.6663
0.30335
0.28571
0.1905
0.17595
0.66933
1.3089
1.9796
2.2792
1.7619
1.0484
0.8218
0.99648
1.1182
0.83228
0.42557
0.20446
0.1487
0.1357
0.17631
0.69011
1.4625
3.0593
3.2356
1.0979
0.19136
1.3183
1.6664
0.87208
0.14014
0.31447
0.9385
1.0437
0.65944
0.38677
0.40378
0.73575
1.5644
3.5317
5.8643
5.3158
2.14
0.24613
0.13579
0.28119
0.48993
1.095
1.9935
1.5748
0.25699
0.26445
0.59439
0.95949
0.66509
0.98541
1.1175
0.34552
0.31403
1.3093
1.6468
1.288
0.72034
0.25146
0.10346
0.2488
0.48853
0.58684
0.56705
0.68972
1.7771
5.9854
11.942
11.108
4.1848
0.31651
0.5991
1.7507
3.0386
5.3653
7.855
6.2238
1.4824
0.2776
1.2096
0.16765
0.32353
0.44841
0.35144
1.007
2.8927
4.0332
2.9646
1.417
0.74072
0.68708
0.71744
0.78646
0.95356
0.72672
0.15314
0.37708
2.4567
7.9556
14.71
14.293
6.6292
1.0625
0.30506
2.007
4.4221
7.3944
10.193
8.2027
2.0956
0.2572
0.82628
0.17015
1.0863
1.4061
0.74936
0.91827
2.3224
3.6937
3.0762
1.3194
0.34434
0.21136
0.51775
1.5568
3.1276
3.1384
1.2264
0.13039
1.2359
5.5753
11.956
12.605
6.0208
0.92492
0.5641
3.1628
6.178
8.1117
8.3087
4.7842
0.66218
0.94624
1.2071
0.28087
1.9513
2.1153
0.8
0.45731
1.1258
2.1519
2.0452
0.84969
0.10994
0.033887
0.47263
2.5629
5.8123
5.9559
2.5704
0.3096
0.42513
2.4953
5.9151
6.1978
2.3885
0.27862
1.4216
3.83
5.2054
4.689
2.9195
0.71762
1.0039
2.8611
1.5931
0.80249
3.6852
3.5683
1.3548
0.4167
0.46585
0.83206
0.90978
0.50922
0.14653
0.10903
0.64527
2.8914
6.0624
5.7643
2.2262
0.214
0.25176
1.2322
2.6752
2.3524
0.55584
0.54652
1.8399
2.5401
2.0474
0.98801
0.25211
0.73141
3.1671
3.9552
1.1916
1.5579
5.465
5.868
3.3602
1.6029
0.97011
0.80407
0.81441
0.86729
0.79042
0.60737
0.77149
1.8897
3.4654
2.9967
0.84623
0.13318
0.81472
1.703
2.2341
1.4011
0.28761
0.4149
0.55894
0.33173
0.29629
0.45345
0.67883
1.5652
3.1455
2.8188
0.54709
1.2654
4.896
7.0703
6.8533
5.8334
4.5665
3.4177
2.7944
2.5911
2.1803
1.2291
0.53034
0.51253
0.79507
0.55245
0.18407
1.4172
3.495
4.2093
3.0964
1.2494
0.24847
0.14165
0.48509
1.9155
3.2525
3.0741
1.9416
1.3981
1.6721
1.4259
0.30698
0.47003
2.934
6.4085
9.8767
12.565
12.764
10.643
7.6576
4.8057
2.5767
0.97839
0.18991
0.040071
0.043066
0.1954
1.6033
5.5142
9.2116
8.4122
4.1914
0.99518
0.16292
0.21662
1.4649
4.2484
5.7188
4.4543
2.0591
0.71426
0.61719
0.8148
0.34661
0.13983
1.6986
5.1479
10.31
16.179
19.226
17.212
11.217
4.9734
1.5293
0.36314
0.087292
0.075265
0.11619
0.63142
3.3366
8.7889
12.221
9.3765
3.723
0.61074
0.1229
0.232
1.4837
3.4256
3.671
2.2222
0.66559
0.094382
0.17786
0.71588
0.5518
0.1442
0.81832
3.3025
7.5677
13.08
16.973
15.674
9.3156
3.0322
0.45853
0.061379
0.10893
0.23729
0.19014
0.23659
1.9698
5.2742
6.2092
3.6542
1.0488
0.20274
0.14124
0.44158
1.7331
2.3421
1.3169
0.29777
0.06016
0.048615
0.19023
1.1625
1.095
0.77976
0.15256
1.0815
3.4055
6.5909
9.006
8.133
4.1821
0.87179
0.050507
0.035836
0.13459
0.59572
0.69796
0.20094
0.20361
0.65092
0.50343
0.61073
1.1518
1.0086
0.29255
0.63204
2.034
1.8515
0.48754
0.043579
0.17482
0.056417
0.60566
2.1615
2.2635
1.7983
0.475
0.13661
0.94152
2.1444
2.778
2.0505
0.66936
0.091728
0.31056
0.24039
0.064501
0.40996
0.52581
0.15264
0.024797
0.089596
1.5403
4.8011
6.471
4.8127
1.6589
0.2784
1.0465
1.0666
0.2746
0.021307
0.047637
0.078648
0.78755
2.1262
2.733
1.2848
0.44849
0.065621
0.45371
0.81413
0.67609
0.22561
0.076117
0.36024
0.70585
0.66241
0.24662
0.07145
0.1179
0.6799
1.533
0.69326
1.1369
6.0837
10.452
10.009
5.5677
1.2692
0.15069
0.40038
0.31952
0.1088
0.023501
0.033214
0.18235
0.59294
1.236
0.14761
0.092078
0.46535
0.94929
0.93929
0.49615
0.095878
0.096475
0.31754
0.69876
1.2291
1.3543
1.2141
2.0047
4.9127
7.9208
5.569
0.83206
3.0123
10.027
13.033
9.247
3.1626
0.2626
0.30133
0.69672
0.52879
0.17747
0.034028
0.11897
0.13348
0.10226
0.40396
0.80648
1.5865
1.8871
1.4915
0.82364
0.24712
0.027517
0.062405
0.39799
1.5702
3.1762
4.4892
6.763
11.003
13.868
9.9949
2.3031
1.4474
8.7561
13.484
10.011
3.5438
0.33151
0.37652
1.1819
1.2372
0.65707
0.16112
0.22928
0.52388
0.46419
1.1403
1.7664
2.5708
2.6177
1.8386
0.92705
0.27634
0.04864
0.077133
0.33179
1.5515
3.9939
6.6653
9.3632
11.646
11.199
6.701
1.2692
1.73
8.746
12.937
9.2145
3.32
0.44295
0.22304
1.3952
2.4331
2.1281
0.94698
0.20314
0.44217
0.85272
0.96097
1.8261
3.0408
3.3417
2.2849
0.894
0.11214
0.14595
0.421
0.68747
1.4883
3.1902
5.0146
5.9328
5.303
3.3468
1.2219
0.27587
2.6742
8.0479
10.544
7.2521
2.9107
0.64612
0.13201
1.8675
4.8692
5.6663
3.5602
1.0907
0.25299
0.50758
0.253
0.94691
2.8768
4.2685
3.4754
1.5266
0.23717
0.25021
0.66673
0.89274
1.3129
2.0894
2.4894
1.8199
0.62753
0.29287
0.76955
1.4048
2.809
5.0989
5.856
3.9052
1.653
0.3615
0.32835
3.1951
8.2903
10.737
8.2389
4.0044
1.4025
0.46952
0.54861
0.28587
2.126
4.3044
4.657
3.2297
1.4421
0.49623
0.27041
0.30304
0.85944
1.8057
1.927
0.78811
0.14152
1.5146
2.7709
2.2362
1.6155
1.7826
1.8546
1.264
0.52809
0.075484
0.75783
4.0163
9.3893
13.211
12.383
8.5408
4.9647
2.3793
0.62876
0.22266
1.38
2.5802
3.3534
3.6147
3.0715
2.0373
1.0168
0.18111
0.60626
2.6956
3.7647
2.037
0.25593
0.98504
1.8499
0.96564
0.25185
0.1733
0.24533
0.27306
0.16448
0.037293
0.62724
2.655
6.2546
10.379
12.477
11.184
7.6216
3.4931
0.14725
0.5541
0.9176
0.7519
0.73432
1.1221
1.5932
1.5558
0.96134
0.17653
0.76131
4.1144
6.7005
4.5505
1.1171
0.20926
0.29051
0.19905
0.42695
0.31944
0.082212
0.033981
0.036516
0.038861
0.37132
1.1518
2.6928
5.5429
8.6666
9.1285
5.8442
1.8148
0.45612
0.98744
0.61897
0.18077
0.35075
0.41813
0.27249
0.18419
0.11654
0.16205
1.2119
4.3477
6.7199
4.2833
0.92903
0.1445
0.19004
1.1178
2.0848
1.5324
0.70767
0.37013
0.36926
0.71803
1.274
1.421
1.4323
2.2915
4.1355
4.6884
2.3516
0.32104
1.4876
1.5161
0.66467
0.11906
0.8317
1.9587
2.2537
1.7931
1.1832
0.97231
1.4009
2.503
2.8942
1.1171
0.51743
1.0128
0.22629
1.8675
4.3282
3.9338
2.7465
2.3604
2.7318
3.7263
4.4588
3.4421
1.5817
0.85055
1.2665
1.4011
0.42412
0.51815
3.5125
3.0166
1.5893
0.37911
0.2381
1.3005
2.4941
2.7872
2.165
1.3619
0.73695
0.37419
0.256
0.92513
3.8775
4.781
1.079
1.6199
6.2104
7.956
7.7217
7.6436
7.7349
7.6839
6.8487
4.2224
1.2944
0.19342
0.16969
0.19843
0.45845
2.1136
5.9179
5.1398
3.2913
1.8512
0.78871
0.22111
0.53076
1.124
1.204
0.66891
0.16541
0.72058
2.1051
4.3147
8.0278
8.5513
2.8505
0.78475
5.9712
11.379
14.585
15.671
13.933
10.055
5.7073
2.0497
0.26667
0.11666
0.24011
0.44713
1.5318
4.0956
5.4683
4.9036
3.8065
3.6167
3.3914
2.0836
0.84061
0.36774
0.25602
0.25969
0.82008
2.4795
4.4609
6.6346
9.4312
9.4554
4.0323
0.35888
3.743
10.843
18.016
21.776
19.357
11.993
4.271
0.45846
0.25345
0.61503
0.68399
0.99001
2.0758
4.0801
2.6015
2.3713
2.3045
3.2564
4.2602
3.894
3.1424
2.8891
2.748
2.5299
2.4444
2.6975
3.7294
6.1766
9.0805
8.7254
4.0132
0.37825
1.634
7.1883
15.269
21.444
21.322
14.423
5.2575
0.53706
0.21671
0.43077
0.51279
0.86974
1.4968
2.2112
0.85994
0.61042
0.5139
0.90778
1.6213
2.4009
3.8591
6.1389
7.4054
5.875
2.8671
1.145
1.4358
4.3076
8.2165
7.9031
3.6124
0.50352
0.4488
3.282
9.1793
15.292
17.692
14.909
8.3535
2.8428
0.79989
0.35405
0.13435
0.25698
0.653
0.88876
0.25915
0.17672
0.43615
0.56497
0.261
0.41401
2.448
6.0632
7.7195
4.8488
1.0841
0.14749
0.2009
2.5144
6.7595
6.5662
2.891
0.5785
0.081593
0.78268
3.5123
7.2411
9.7477
10.738
9.9002
7.3102
4.6778
2.6217
0.94024
0.12422
0.11062
0.28705
0.34097
1.3803
3.3793
3.9515
1.9921
0.19476
1.1284
3.457
3.8017
1.4272
0.20664
0.87232
0.27948
1.2635
4.2458
3.7431
1.295
0.24648
0.077281
0.093395
0.70997
1.7467
2.6081
4.1314
6.6237
8.0408
6.7326
3.8353
1.542
0.52864
0.21419
0.16591
1.1193
3.1764
5.9816
5.7025
2.1921
0.16408
0.87036
1.6249
1.138
0.17789
0.29952
0.78694
0.25527
0.5421
1.6262
0.96066
0.15364
0.24161
0.32774
0.3468
0.3522
0.2036
0.13325
0.43874
1.8854
3.7253
3.375
1.5043
0.47725
0.34641
0.51427
0.6064
1.2203
2.2771
3.6754
2.8656
0.59618
0.62511
1.6381
1.3728
0.66064
0.21141
0.091054
0.10453
0.089258
0.24862
0.35
0.10784
0.56274
1.6375
2.6794
3.1802
2.2207
0.5337
0.060559
0.15326
0.12669
0.37069
0.33833
0.58191
0.81627
0.18789
0.37008
0.90475